# vtk DataFile Version 2.0
solution by FDM
ASCII
DATASET UNSTRUCTURED_GRID
POINTS 100 double
0.000000 0.000000 0.000000
0.000000 0.100000 0.000000
0.000000 0.200000 0.000000
0.000000 0.300000 0.000000
0.000000 0.400000 0.000000
0.000000 0.500000 0.000000
0.000000 0.600000 0.000000
0.000000 0.700000 0.000000
0.000000 0.800000 0.000000
0.000000 0.900000 0.000000
0.100000 0.000000 0.000000
0.100000 0.100000 0.000000
0.100000 0.200000 0.000000
0.100000 0.300000 0.000000
0.100000 0.400000 0.000000
0.100000 0.500000 0.000000
0.100000 0.600000 0.000000
0.100000 0.700000 0.000000
0.100000 0.800000 0.000000
0.100000 0.900000 0.000000
0.200000 0.000000 0.000000
0.200000 0.100000 0.000000
0.200000 0.200000 0.000000
0.200000 0.300000 0.000000
0.200000 0.400000 0.000000
0.200000 0.500000 0.000000
0.200000 0.600000 0.000000
0.200000 0.700000 0.000000
0.200000 0.800000 0.000000
0.200000 0.900000 0.000000
0.300000 0.000000 0.000000
0.300000 0.100000 0.000000
0.300000 0.200000 0.000000
0.300000 0.300000 0.000000
0.300000 0.400000 0.000000
0.300000 0.500000 0.000000
0.300000 0.600000 0.000000
0.300000 0.700000 0.000000
0.300000 0.800000 0.000000
0.300000 0.900000 0.000000
0.400000 0.000000 0.000000
0.400000 0.100000 0.000000
0.400000 0.200000 0.000000
0.400000 0.300000 0.000000
0.400000 0.400000 0.000000
0.400000 0.500000 0.000000
0.400000 0.600000 0.000000
0.400000 0.700000 0.000000
0.400000 0.800000 0.000000
0.400000 0.900000 0.000000
0.500000 0.000000 0.000000
0.500000 0.100000 0.000000
0.500000 0.200000 0.000000
0.500000 0.300000 0.000000
0.500000 0.400000 0.000000
0.500000 0.500000 0.000000
0.500000 0.600000 0.000000
0.500000 0.700000 0.000000
0.500000 0.800000 0.000000
0.500000 0.900000 0.000000
0.600000 0.000000 0.000000
0.600000 0.100000 0.000000
0.600000 0.200000 0.000000
0.600000 0.300000 0.000000
0.600000 0.400000 0.000000
0.600000 0.500000 0.000000
0.600000 0.600000 0.000000
0.600000 0.700000 0.000000
0.600000 0.800000 0.000000
0.600000 0.900000 0.000000
0.700000 0.000000 0.000000
0.700000 0.100000 0.000000
0.700000 0.200000 0.000000
0.700000 0.300000 0.000000
0.700000 0.400000 0.000000
0.700000 0.500000 0.000000
0.700000 0.600000 0.000000
0.700000 0.700000 0.000000
0.700000 0.800000 0.000000
0.700000 0.900000 0.000000
0.800000 0.000000 0.000000
0.800000 0.100000 0.000000
0.800000 0.200000 0.000000
0.800000 0.300000 0.000000
0.800000 0.400000 0.000000
0.800000 0.500000 0.000000
0.800000 0.600000 0.000000
0.800000 0.700000 0.000000
0.800000 0.800000 0.000000
0.800000 0.900000 0.000000
0.900000 0.000000 0.000000
0.900000 0.100000 0.000000
0.900000 0.200000 0.000000
0.900000 0.300000 0.000000
0.900000 0.400000 0.000000
0.900000 0.500000 0.000000
0.900000 0.600000 0.000000
0.900000 0.700000 0.000000
0.900000 0.800000 0.000000
0.900000 0.900000 0.000000
POINT_DATA 100
SCALARS U double 1
LOOKUP_TABLE default
0.000000
0.000000
0.000000
0.000000
0.000000
0.000000
0.000000
0.000000
0.000000
0.000000
0.000000
0.003851
0.004161
0.000645
-0.003464
-0.004392
-0.001288
0.002983
0.004467
0.001734
0.000000
0.004161
0.004496
0.000698
-0.003743
-0.004745
-0.001391
0.003224
0.004828
0.001874
0.000000
0.000645
0.000698
0.000109
-0.000579
-0.000735
-0.000214
0.000501
0.000750
0.000291
0.000000
-0.003464
-0.003743
-0.000579
0.003119
0.003954
0.001161
-0.002681
-0.004018
-0.001559
0.000000
-0.004392
-0.004745
-0.000735
0.003954
0.005012
0.001473
-0.003398
-0.005092
-0.001976
0.000000
-0.001288
-0.001391
-0.000214
0.001161
0.001473
0.000436
-0.000992
-0.001488
-0.000576
0.000000
0.002983
0.003224
0.000501
-0.002681
-0.003398
-0.000992
0.002319
0.003472
0.001354
0.000000
0.004467
0.004828
0.000750
-0.004018
-0.005092
-0.001488
0.003472
0.005202
0.002039
0.000000
0.001734
0.001874
0.000291
-0.001559
-0.001976
-0.000576
0.001354
0.002039
0.000849

SCALARS U_true double 1
LOOKUP_TABLE default
0.000000
0.000000
0.000000
0.000000
-0.000000
-0.000000
-0.000000
0.000000
0.000000
0.000000
0.000000
0.003540
0.003826
0.000594
-0.003184
-0.004035
-0.001176
0.002764
0.004163
0.001734
0.000000
0.003826
0.004134
0.000642
-0.003441
-0.004360
-0.001270
0.002987
0.004498
0.001874
0.000000
0.000594
0.000642
0.000100
-0.000534
-0.000677
-0.000197
0.000464
0.000698
0.000291
-0.000000
-0.003184
-0.003441
-0.000534
0.002864
0.003629
0.001057
-0.002486
-0.003744
-0.001559
-0.000000
-0.004035
-0.004360
-0.000677
0.003629
0.004598
0.001340
-0.003150
-0.004744
-0.001976
-0.000000
-0.001176
-0.001270
-0.000197
0.001057
0.001340
0.000390
-0.000918
-0.001382
-0.000576
0.000000
0.002764
0.002987
0.000464
-0.002486
-0.003150
-0.000918
0.002158
0.003250
0.001354
0.000000
0.004163
0.004498
0.000698
-0.003744
-0.004744
-0.001382
0.003250
0.004894
0.002039
0.000000
0.001734
0.001874
0.000291
-0.001559
-0.001976
-0.000576
0.001354
0.002039
0.000849

