# vtk DataFile Version 2.0
solution by FDM
ASCII
DATASET UNSTRUCTURED_GRID
POINTS 10000 double
0.000000 0.000000 0.000000
0.000000 0.010000 0.000000
0.000000 0.020000 0.000000
0.000000 0.030000 0.000000
0.000000 0.040000 0.000000
0.000000 0.050000 0.000000
0.000000 0.060000 0.000000
0.000000 0.070000 0.000000
0.000000 0.080000 0.000000
0.000000 0.090000 0.000000
0.000000 0.100000 0.000000
0.000000 0.110000 0.000000
0.000000 0.120000 0.000000
0.000000 0.130000 0.000000
0.000000 0.140000 0.000000
0.000000 0.150000 0.000000
0.000000 0.160000 0.000000
0.000000 0.170000 0.000000
0.000000 0.180000 0.000000
0.000000 0.190000 0.000000
0.000000 0.200000 0.000000
0.000000 0.210000 0.000000
0.000000 0.220000 0.000000
0.000000 0.230000 0.000000
0.000000 0.240000 0.000000
0.000000 0.250000 0.000000
0.000000 0.260000 0.000000
0.000000 0.270000 0.000000
0.000000 0.280000 0.000000
0.000000 0.290000 0.000000
0.000000 0.300000 0.000000
0.000000 0.310000 0.000000
0.000000 0.320000 0.000000
0.000000 0.330000 0.000000
0.000000 0.340000 0.000000
0.000000 0.350000 0.000000
0.000000 0.360000 0.000000
0.000000 0.370000 0.000000
0.000000 0.380000 0.000000
0.000000 0.390000 0.000000
0.000000 0.400000 0.000000
0.000000 0.410000 0.000000
0.000000 0.420000 0.000000
0.000000 0.430000 0.000000
0.000000 0.440000 0.000000
0.000000 0.450000 0.000000
0.000000 0.460000 0.000000
0.000000 0.470000 0.000000
0.000000 0.480000 0.000000
0.000000 0.490000 0.000000
0.000000 0.500000 0.000000
0.000000 0.510000 0.000000
0.000000 0.520000 0.000000
0.000000 0.530000 0.000000
0.000000 0.540000 0.000000
0.000000 0.550000 0.000000
0.000000 0.560000 0.000000
0.000000 0.570000 0.000000
0.000000 0.580000 0.000000
0.000000 0.590000 0.000000
0.000000 0.600000 0.000000
0.000000 0.610000 0.000000
0.000000 0.620000 0.000000
0.000000 0.630000 0.000000
0.000000 0.640000 0.000000
0.000000 0.650000 0.000000
0.000000 0.660000 0.000000
0.000000 0.670000 0.000000
0.000000 0.680000 0.000000
0.000000 0.690000 0.000000
0.000000 0.700000 0.000000
0.000000 0.710000 0.000000
0.000000 0.720000 0.000000
0.000000 0.730000 0.000000
0.000000 0.740000 0.000000
0.000000 0.750000 0.000000
0.000000 0.760000 0.000000
0.000000 0.770000 0.000000
0.000000 0.780000 0.000000
0.000000 0.790000 0.000000
0.000000 0.800000 0.000000
0.000000 0.810000 0.000000
0.000000 0.820000 0.000000
0.000000 0.830000 0.000000
0.000000 0.840000 0.000000
0.000000 0.850000 0.000000
0.000000 0.860000 0.000000
0.000000 0.870000 0.000000
0.000000 0.880000 0.000000
0.000000 0.890000 0.000000
0.000000 0.900000 0.000000
0.000000 0.910000 0.000000
0.000000 0.920000 0.000000
0.000000 0.930000 0.000000
0.000000 0.940000 0.000000
0.000000 0.950000 0.000000
0.000000 0.960000 0.000000
0.000000 0.970000 0.000000
0.000000 0.980000 0.000000
0.000000 0.990000 0.000000
0.010000 0.000000 0.000000
0.010000 0.010000 0.000000
0.010000 0.020000 0.000000
0.010000 0.030000 0.000000
0.010000 0.040000 0.000000
0.010000 0.050000 0.000000
0.010000 0.060000 0.000000
0.010000 0.070000 0.000000
0.010000 0.080000 0.000000
0.010000 0.090000 0.000000
0.010000 0.100000 0.000000
0.010000 0.110000 0.000000
0.010000 0.120000 0.000000
0.010000 0.130000 0.000000
0.010000 0.140000 0.000000
0.010000 0.150000 0.000000
0.010000 0.160000 0.000000
0.010000 0.170000 0.000000
0.010000 0.180000 0.000000
0.010000 0.190000 0.000000
0.010000 0.200000 0.000000
0.010000 0.210000 0.000000
0.010000 0.220000 0.000000
0.010000 0.230000 0.000000
0.010000 0.240000 0.000000
0.010000 0.250000 0.000000
0.010000 0.260000 0.000000
0.010000 0.270000 0.000000
0.010000 0.280000 0.000000
0.010000 0.290000 0.000000
0.010000 0.300000 0.000000
0.010000 0.310000 0.000000
0.010000 0.320000 0.000000
0.010000 0.330000 0.000000
0.010000 0.340000 0.000000
0.010000 0.350000 0.000000
0.010000 0.360000 0.000000
0.010000 0.370000 0.000000
0.010000 0.380000 0.000000
0.010000 0.390000 0.000000
0.010000 0.400000 0.000000
0.010000 0.410000 0.000000
0.010000 0.420000 0.000000
0.010000 0.430000 0.000000
0.010000 0.440000 0.000000
0.010000 0.450000 0.000000
0.010000 0.460000 0.000000
0.010000 0.470000 0.000000
0.010000 0.480000 0.000000
0.010000 0.490000 0.000000
0.010000 0.500000 0.000000
0.010000 0.510000 0.000000
0.010000 0.520000 0.000000
0.010000 0.530000 0.000000
0.010000 0.540000 0.000000
0.010000 0.550000 0.000000
0.010000 0.560000 0.000000
0.010000 0.570000 0.000000
0.010000 0.580000 0.000000
0.010000 0.590000 0.000000
0.010000 0.600000 0.000000
0.010000 0.610000 0.000000
0.010000 0.620000 0.000000
0.010000 0.630000 0.000000
0.010000 0.640000 0.000000
0.010000 0.650000 0.000000
0.010000 0.660000 0.000000
0.010000 0.670000 0.000000
0.010000 0.680000 0.000000
0.010000 0.690000 0.000000
0.010000 0.700000 0.000000
0.010000 0.710000 0.000000
0.010000 0.720000 0.000000
0.010000 0.730000 0.000000
0.010000 0.740000 0.000000
0.010000 0.750000 0.000000
0.010000 0.760000 0.000000
0.010000 0.770000 0.000000
0.010000 0.780000 0.000000
0.010000 0.790000 0.000000
0.010000 0.800000 0.000000
0.010000 0.810000 0.000000
0.010000 0.820000 0.000000
0.010000 0.830000 0.000000
0.010000 0.840000 0.000000
0.010000 0.850000 0.000000
0.010000 0.860000 0.000000
0.010000 0.870000 0.000000
0.010000 0.880000 0.000000
0.010000 0.890000 0.000000
0.010000 0.900000 0.000000
0.010000 0.910000 0.000000
0.010000 0.920000 0.000000
0.010000 0.930000 0.000000
0.010000 0.940000 0.000000
0.010000 0.950000 0.000000
0.010000 0.960000 0.000000
0.010000 0.970000 0.000000
0.010000 0.980000 0.000000
0.010000 0.990000 0.000000
0.020000 0.000000 0.000000
0.020000 0.010000 0.000000
0.020000 0.020000 0.000000
0.020000 0.030000 0.000000
0.020000 0.040000 0.000000
0.020000 0.050000 0.000000
0.020000 0.060000 0.000000
0.020000 0.070000 0.000000
0.020000 0.080000 0.000000
0.020000 0.090000 0.000000
0.020000 0.100000 0.000000
0.020000 0.110000 0.000000
0.020000 0.120000 0.000000
0.020000 0.130000 0.000000
0.020000 0.140000 0.000000
0.020000 0.150000 0.000000
0.020000 0.160000 0.000000
0.020000 0.170000 0.000000
0.020000 0.180000 0.000000
0.020000 0.190000 0.000000
0.020000 0.200000 0.000000
0.020000 0.210000 0.000000
0.020000 0.220000 0.000000
0.020000 0.230000 0.000000
0.020000 0.240000 0.000000
0.020000 0.250000 0.000000
0.020000 0.260000 0.000000
0.020000 0.270000 0.000000
0.020000 0.280000 0.000000
0.020000 0.290000 0.000000
0.020000 0.300000 0.000000
0.020000 0.310000 0.000000
0.020000 0.320000 0.000000
0.020000 0.330000 0.000000
0.020000 0.340000 0.000000
0.020000 0.350000 0.000000
0.020000 0.360000 0.000000
0.020000 0.370000 0.000000
0.020000 0.380000 0.000000
0.020000 0.390000 0.000000
0.020000 0.400000 0.000000
0.020000 0.410000 0.000000
0.020000 0.420000 0.000000
0.020000 0.430000 0.000000
0.020000 0.440000 0.000000
0.020000 0.450000 0.000000
0.020000 0.460000 0.000000
0.020000 0.470000 0.000000
0.020000 0.480000 0.000000
0.020000 0.490000 0.000000
0.020000 0.500000 0.000000
0.020000 0.510000 0.000000
0.020000 0.520000 0.000000
0.020000 0.530000 0.000000
0.020000 0.540000 0.000000
0.020000 0.550000 0.000000
0.020000 0.560000 0.000000
0.020000 0.570000 0.000000
0.020000 0.580000 0.000000
0.020000 0.590000 0.000000
0.020000 0.600000 0.000000
0.020000 0.610000 0.000000
0.020000 0.620000 0.000000
0.020000 0.630000 0.000000
0.020000 0.640000 0.000000
0.020000 0.650000 0.000000
0.020000 0.660000 0.000000
0.020000 0.670000 0.000000
0.020000 0.680000 0.000000
0.020000 0.690000 0.000000
0.020000 0.700000 0.000000
0.020000 0.710000 0.000000
0.020000 0.720000 0.000000
0.020000 0.730000 0.000000
0.020000 0.740000 0.000000
0.020000 0.750000 0.000000
0.020000 0.760000 0.000000
0.020000 0.770000 0.000000
0.020000 0.780000 0.000000
0.020000 0.790000 0.000000
0.020000 0.800000 0.000000
0.020000 0.810000 0.000000
0.020000 0.820000 0.000000
0.020000 0.830000 0.000000
0.020000 0.840000 0.000000
0.020000 0.850000 0.000000
0.020000 0.860000 0.000000
0.020000 0.870000 0.000000
0.020000 0.880000 0.000000
0.020000 0.890000 0.000000
0.020000 0.900000 0.000000
0.020000 0.910000 0.000000
0.020000 0.920000 0.000000
0.020000 0.930000 0.000000
0.020000 0.940000 0.000000
0.020000 0.950000 0.000000
0.020000 0.960000 0.000000
0.020000 0.970000 0.000000
0.020000 0.980000 0.000000
0.020000 0.990000 0.000000
0.030000 0.000000 0.000000
0.030000 0.010000 0.000000
0.030000 0.020000 0.000000
0.030000 0.030000 0.000000
0.030000 0.040000 0.000000
0.030000 0.050000 0.000000
0.030000 0.060000 0.000000
0.030000 0.070000 0.000000
0.030000 0.080000 0.000000
0.030000 0.090000 0.000000
0.030000 0.100000 0.000000
0.030000 0.110000 0.000000
0.030000 0.120000 0.000000
0.030000 0.130000 0.000000
0.030000 0.140000 0.000000
0.030000 0.150000 0.000000
0.030000 0.160000 0.000000
0.030000 0.170000 0.000000
0.030000 0.180000 0.000000
0.030000 0.190000 0.000000
0.030000 0.200000 0.000000
0.030000 0.210000 0.000000
0.030000 0.220000 0.000000
0.030000 0.230000 0.000000
0.030000 0.240000 0.000000
0.030000 0.250000 0.000000
0.030000 0.260000 0.000000
0.030000 0.270000 0.000000
0.030000 0.280000 0.000000
0.030000 0.290000 0.000000
0.030000 0.300000 0.000000
0.030000 0.310000 0.000000
0.030000 0.320000 0.000000
0.030000 0.330000 0.000000
0.030000 0.340000 0.000000
0.030000 0.350000 0.000000
0.030000 0.360000 0.000000
0.030000 0.370000 0.000000
0.030000 0.380000 0.000000
0.030000 0.390000 0.000000
0.030000 0.400000 0.000000
0.030000 0.410000 0.000000
0.030000 0.420000 0.000000
0.030000 0.430000 0.000000
0.030000 0.440000 0.000000
0.030000 0.450000 0.000000
0.030000 0.460000 0.000000
0.030000 0.470000 0.000000
0.030000 0.480000 0.000000
0.030000 0.490000 0.000000
0.030000 0.500000 0.000000
0.030000 0.510000 0.000000
0.030000 0.520000 0.000000
0.030000 0.530000 0.000000
0.030000 0.540000 0.000000
0.030000 0.550000 0.000000
0.030000 0.560000 0.000000
0.030000 0.570000 0.000000
0.030000 0.580000 0.000000
0.030000 0.590000 0.000000
0.030000 0.600000 0.000000
0.030000 0.610000 0.000000
0.030000 0.620000 0.000000
0.030000 0.630000 0.000000
0.030000 0.640000 0.000000
0.030000 0.650000 0.000000
[...]
POINT_DATA 10000
SCALARS U double 1
LOOKUP_TABLE default
0.000000
0.000000
0.000000
0.000000
0.000000
0.000000
0.000000
0.000000
0.000000
0.000000
0.000000
0.000000
0.000000
0.000000
0.000000
0.000000
0.000000
0.000000
0.000000
0.000000
0.000000
0.000000
0.000000
0.000000
0.000000
0.000000
0.000000
0.000000
0.000000
0.000000
0.000000
0.000000
0.000000
0.000000
0.000000
0.000000
0.000000
0.000000
0.000000
0.000000
0.000000
0.000000
0.000000
0.000000
0.000000
0.000000
0.000000
0.000000
0.000000
0.000000
0.000000
0.000000
0.000000
0.000000
0.000000
0.000000
0.000000
0.000000
0.000000
0.000000
0.000000
0.000000
0.000000
0.000000
0.000000
0.000000
0.000000
0.000000
0.000000
0.000000
0.000000
0.000000
0.000000
0.000000
0.000000
0.000000
0.000000
0.000000
0.000000
0.000000
0.000000
0.000000
0.000000
0.000000
0.000000
0.000000
0.000000
0.000000
0.000000
0.000000
0.000000
0.000000
0.000000
0.000000
0.000000
0.000000
0.000000
0.000000
0.000000
0.000000
0.000000
0.000050
0.000099
0.000149
0.000198
0.000248
0.000297
0.000345
0.000394
0.000441
0.000489
0.000536
0.000582
0.000628
0.000674
0.000718
0.000762
0.000805
0.000848
0.000889
0.000930
0.000970
0.001008
0.001046
0.001083
0.001118
0.001153
0.001186
0.001218
0.001249
0.001279
0.001308
0.001335
0.001361
0.001385
0.001408
0.001430
0.001450
0.001469
0.001486
0.001502
0.001517
0.001529
0.001541
0.001551
0.001559
0.001566
0.001571
0.001574
0.001576
0.001577
0.001576
0.001573
0.001569
0.001563
0.001555
0.001546
0.001536
0.001524
0.001510
0.001495
0.001478
0.001460
0.001441
0.001420
0.001397
0.001373
0.001348
0.001321
0.001293
0.001264
0.001234
0.001202
0.001169
0.001134
0.001099
0.001062
0.001025
0.000986
0.000946
0.000906
0.000864
0.000821
0.000778
0.000734
0.000689
0.000643
0.000596
0.000549
0.000501
0.000453
0.000404
0.000355
0.000305
0.000255
0.000204
0.000154
0.000103
0.000051
0.000000
0.000000
0.000099
0.000199
0.000298
0.000396
0.000495
0.000593
0.000690
0.000787
0.000883
0.000977
0.001071
0.001164
0.001256
0.001347
0.001436
0.001524
0.001610
0.001695
0.001778
0.001859
0.001938
0.002016
0.002091
0.002164
0.002236
0.002305
0.002371
0.002436
0.002497
0.002557
0.002614
0.002668
0.002720
0.002769
0.002815
0.002858
0.002899
0.002936
0.002971
0.003003
0.003032
0.003057
0.003080
0.003100
0.003116
0.003130
0.003140
0.003147
0.003151
0.003152
0.003150
0.003144
0.003136
0.003124
0.003109
0.003091
0.003070
0.003046
0.003019
0.002989
0.002955
0.002919
0.002880
0.002838
0.002793
0.002745
0.002695
0.002641
0.002586
0.002527
0.002466
0.002402
0.002336
0.002268
0.002197
0.002124
0.002048
0.001971
0.001892
0.001810
0.001727
0.001642
0.001555
0.001466
0.001376
0.001285
0.001192
0.001098
0.001002
0.000905
0.000808
0.000709
0.000610
0.000509
0.000408
0.000307
0.000205
0.000103
0.000000
0.000000
0.000149
0.000298
0.000446
0.000594
0.000742
0.000888
0.001034
0.001179
0.001323
0.001465
0.001606
0.001745
0.001883
0.002018
0.002152
0.002284
0.002413
0.002540
0.002664
0.002786
0.002905
0.003021
0.003134
0.003244
0.003351
0.003454
0.003554
0.003650
0.003743
0.003832
0.003917
0.003999
0.004076
0.004150
0.004219
0.004284
0.004344
0.004401
0.004453
0.004501
0.004544
0.004582
0.004616
0.004646
0.004670
0.004691
0.004706
0.004717
0.004723
0.004724
0.004721
0.004713
0.004700
0.004682
0.004660
0.004633
0.004601
0.004565
0.004525
0.004479
0.004429
0.004375
0.004316
0.004253
0.004186
0.004115
0.004039
0.003959
0.003875
0.003787
0.003696
0.003600
0.003501
0.003399
0.003292
0.003183
0.003070
0.002954
0.002835
0.002713
0.002588
0.002461
0.002330
0.002198
0.002063
0.001926
0.001786
0.001645
0.001502
0.001357
0.001211
0.001063
0.000914
0.000763
0.000612
0.000460
0.000307
0.000154
0.000000
0.000000
0.000198
0.000396
0.000594
0.000791
0.000988
0.001183
0.001377
0.001570
0.001762
0.001951
0.002139
0.002324
0.002507
0.002688
0.002866
0.003041
0.003213
0.003382
0.003548
0.003710
0.003869
0.004023
0.004174
0.004320
0.004462
0.004600
0.004733
0.004861
0.004985
0.005104
0.005217
0.005326
0.005429
0.005526
0.005618
0.005705
0.005786
0.005861
0.005930
0.005994
0.006051
0.006103
0.006148
0.006187
0.006220
0.006247
0.006267
0.006282
0.006290
0.006292
0.006287
0.006276
0.006259
0.006236
0.006206
0.006170
0.006128
0.006080
0.006026
0.005965
0.005899
0.005827
0.005749
0.005665
0.005575
0.005480
0.005379
0.005273
0.005161
0.005044
0.004922
0.004795
0.004663
0.004526
0.004385
0.004239
0.004089
0.003934
0.003776
0.003613
0.003447
0.003277
0.003104
0.002927
0.002747
0.002564
0.002379
0.002191
0.002000
0.001807
0.001612
0.001415
0.001217
0.001017
0.000815
0.000613
0.000409
0.000205
0.000000
0.000000
0.000248
0.000495
0.000742
0.000988
0.001233
0.001477
0.001719
0.001960
0.002199
0.002435
0.002669
0.002901
0.003130
0.003355
0.003577
0.003796
0.004011
0.004222
0.004428
0.004631
0.004828
0.005021
0.005209
0.005392
0.005569
0.005741
0.005907
0.006068
0.006222
0.006370
0.006512
0.006647
0.006776
0.006898
0.007013
0.007121
0.007222
0.007315
0.007402
0.007481
0.007553
0.007617
0.007673
0.007722
0.007763
0.007797
0.007823
0.007840
0.007850
0.007853
0.007847
0.007833
0.007812
0.007783
0.007746
0.007701
0.007649
0.007589
0.007521
0.007446
0.007363
0.007273
0.007175
0.007070
0.006958
0.006839
0.006713
0.006581
0.006441
0.006296
0.006143
0.005985
0.005820
0.005649
0.005473
0.005291
0.005103
0.004911
0.004713
0.004510
0.004302
0.004090
0.003874
0.003653
0.003429
0.003201
0.002969
0.002734
0.002496
0.002256
0.002012
0.001767
0.001519
0.001269
0.001018
0.000765
0.000511
0.000256
0.000000
0.000000
0.000297
0.000593
0.000888
0.001183
0.001477
0.001769
0.002059
0.002348
0.002634
0.002917
0.003197
0.003475
0.003749
0.004019
0.004285
0.004547
0.004804
0.005057
0.005304
0.005547
0.005784
0.006015
0.006240
0.006459
0.006671
0.006877
0.007076
0.007268
0.007453
0.007630
0.007800
0.007962
0.008116
0.008262
0.008400
0.008529
0.008650
0.008762
0.008866
0.008961
0.009047
0.009124
0.009191
0.009250
0.009299
0.009339
0.009370
0.009391
0.009403
0.009406
0.009399
0.009383
0.009357
0.009323
0.009278
0.009225
0.009162
0.009090
0.009009
0.008918
0.008819
0.008711
0.008594
0.008469
0.008335
0.008192
0.008042
0.007883
0.007716
0.007541
0.007358
0.007169
0.006971
0.006767
0.006556
0.006337
0.006113
0.005882
0.005645
0.005402
0.005153
0.004899
0.004640
0.004376
0.004107
0.003834
0.003557
0.003275
0.002990
0.002702
0.002410
0.002116
0.001819
0.001520
0.001219
0.000916
0.000612
0.000306
0.000000
0.000000
0.000345
0.000690
0.001034
0.001377
0.001719
0.002059
0.002397
0.002733
0.003066
0.003396
0.003722
0.004045
0.004364
0.004679
0.004988
0.005293
0.005593
0.005887
0.006175
0.006457
0.006733
0.007002
0.007264
0.007519
0.007766
0.008006
0.008238
0.008461
0.008676
0.008883
0.009080
0.009269
0.009448
0.009618
0.009779
0.009929
0.010070
0.010201
0.010322
0.010432
0.010532
0.010621
0.010700
0.010768
0.010826
0.010872
0.010908
0.010933
0.010947
0.010950
0.010942
0.010923
0.010894
0.010853
0.010801
0.010739
0.010666
0.010582
0.010487
0.010382
0.010267
0.010141
0.010005
0.009859
0.009703
0.009537
0.009362
0.009177
0.008982
0.008779
0.008566
0.008345
0.008116
0.007878
0.007632
0.007378
0.007116
0.006847
0.006571
0.006289
0.005999
0.005704
0.005402
0.005094
0.004781
0.004463
0.004140
0.003813
0.003481
0.003145
0.002806
0.002463
0.002118
0.001770
0.001419
0.001066
0.000712
0.000357
0.000000
0.000000
0.000394
0.000787
0.001179
0.001570
0.001960
0.002348
0.002733
0.003116
0.003495
0.003871
0.004244
0.004612
0.004975
0.005334
0.005687
0.006034
0.006376
0.006711
0.007040
0.007361
0.007676
0.007982
0.008281
0.008572
0.008854
0.009127
0.009391
0.009646
0.009891
0.010126
0.010352
0.010567
0.010771
0.010965
0.011148
0.011320
0.011480
0.011629
0.011767
0.011892
0.012006
0.012108
0.012198
0.012276
0.012341
0.012395
0.012435
0.012464
0.012480
0.012483
0.012474
0.012453
0.012419
0.012372
0.012314
0.012243
0.012159
0.012064
0.011956
0.011836
0.011704
0.011561
0.011406
0.011239
0.011061
0.010872
0.010672
0.010461
0.010240
0.010008
0.009766
0.009514
0.009252
0.008981
0.008700
0.008411
0.008113
0.007806
0.007492
0.007169
0.006839
0.006502
0.006158
0.005808
0.005451
0.005088
0.004720
0.004347
0.003968
0.003586
0.003199
0.002808
0.002414
0.002017
0.001618
0.001216
0.000812
0.000407
0.000000
0.000000
0.000441
0.000883
0.001323
0.001762
0.002199
0.002634
0.003066
0.003495
0.003921
0.004343
0.004761
0.005173
0.005581
0.005983
0.006380
0.006770
0.007153
0.007529
0.007897
0.008258
0.008611
0.008955
0.009290
0.009616
0.009932
0.010239
0.010535
0.010821
0.011096
0.011360
0.011613
0.011854
0.012083
0.012301
0.012506
0.012699
0.012879
0.013046
0.013200
0.013341
0.013469
0.013583
0.013684
0.013771
0.013845
0.013905
0.013950
0.013982
0.014000
0.014004
0.013994
0.013970
0.013932
0.013880
0.013814
0.013734
0.013640
0.013533
0.013412
0.013278
0.013130
0.012969
0.012796
0.012609
0.012409
0.012197
0.011972
0.011736
0.011487
0.011227
0.010956
0.010673
0.010379
0.010075
0.009760
0.009435
0.009101
0.008757
0.008404
0.008043
0.007672
0.007294
0.006908
0.006515
0.006115
0.005708
0.005295
0.004876
0.004452
0.004023
0.003589
0.003151
0.002709
0.002263
0.001815
0.001364
0.000911
0.000456
0.000000
0.000000
0.000489
0.000977
0.001465
0.001951
0.002435
0.002917
0.003396
0.003871
0.004343
0.004810
0.005273
0.005730
0.006182
0.006627
0.007066
0.007498
0.007922
0.008339
0.008747
0.009147
0.009537
0.009918
0.010290
0.010651
0.011001
0.011340
0.011669
0.011985
0.012290
0.012582
0.012862
0.013129
0.013384
0.013624
0.013852
0.014065
0.014264
0.014450
0.014621
0.014777
0.014918
0.015045
0.015157
0.015253
0.015335
0.015401
0.015452
0.015487
0.015507
0.015511
0.015500
0.015473
0.015431
0.015373
0.015300
0.015212
0.015108
0.014989
0.014856
0.014707
0.014543
0.014365
0.014172
0.013965
0.013744
0.013509
0.013261
0.012999
0.012723
0.012435
0.012134
0.011821
0.011496
0.011159
0.010810
0.010451
0.010080
0.009699
0.009309
0.008908
0.008498
0.008079
0.007652
0.007216
0.006773
0.006322
0.005865
0.005401
0.004931
0.004455
0.003975
0.003490
0.003000
0.002507
0.002010
0.001511
0.001009
0.000505
0.000000
0.000000
0.000536
0.001071
0.001606
0.002139
0.002669
0.003197
0.003722
0.004244
0.004761
0.005273
0.005780
0.006281
0.006776
0.007264
0.007746
0.008219
0.008684
0.009141
0.009588
0.010026
0.010454
0.010872
0.011279
0.011675
0.012059
0.012431
0.012791
0.013138
0.013472
0.013792
0.014099
0.014392
0.014670
0.014934
0.015183
0.015417
0.015636
0.015839
0.016026
0.016198
0.016353
0.016492
0.016614
0.016720
0.016809
0.016882
0.016937
0.016976
0.016998
0.017002
0.016990
0.016961
0.016915
0.016851
0.016771
0.016675
0.016561
0.016431
0.016284
0.016121
0.015942
0.015746
0.015535
0.015308
0.015066
0.014808
0.014536
0.014249
0.013947
0.013631
0.013301
0.012958
0.012601
0.012232
0.011850
0.011456
0.011050
0.010632
0.010204
0.009764
0.009315
0.008856
0.008387
0.007910
0.007424
0.006930
0.006429
0.005920
0.005405
0.004884
0.004357
0.003825
0.003288
0.002748
0.002203
0.001656
0.001106
0.000554
0.000000
0.000000
0.000582
0.001164
0.001745
0.002324
0.002901
0.003475
0.004045
0.004612
0.005173
0.005730
0.006281
0.006826
0.007364
0.007894
0.008417
0.008932
0.009437
0.009934
0.010420
0.010896
0.011361
0.011815
0.012257
0.012687
0.013105
0.013509
0.013900
0.014277
0.014640
0.014988
0.015322
0.015640
0.015943
0.016230
0.016500
0.016755
0.016992
0.017213
0.017416
0.017603
0.017771
0.017922
0.018055
0.018170
0.018267
0.018346
0.018406
0.018448
0.018472
0.018477
0.018464
0.018432
0.018382
0.018313
0.018226
0.018121
0.017997
0.017856
0.017696
0.017519
0.017324
0.017112
0.016882
0.016636
0.016373
0.016093
0.015797
0.015484
0.015156
0.014813
0.014455
0.014082
0.013694
0.013293
0.012878
0.012449
0.012008
0.011554
0.011089
0.010611
0.010123
0.009624
0.009115
0.008596
0.008068
0.007531
0.006986
0.006434
0.005874
0.005307
0.004735
0.004157
0.003574
0.002986
0.002395
0.001800
0.001202
0.000602
0.000000
0.000000
0.000628
0.001256
0.001883
0.002507
0.003130
0.003749
0.004364
0.004975
0.005581
0.006182
0.006776
0.007364
0.007944
0.008517
0.009081
0.009636
0.010181
0.010716
0.011241
0.011755
0.012257
0.012746
0.013223
0.013687
0.014137
0.014574
0.014995
0.015402
0.015794
0.016170
0.016529
0.016873
0.017199
0.017509
0.017801
0.018075
0.018331
0.018569
0.018789
0.018990
0.019172
0.019335
0.019478
0.019602
0.019707
0.019792
0.019857
0.019902
0.019928
0.019933
0.019919
0.019885
0.019830
0.019756
0.019662
0.019549
0.019416
0.019263
0.019091
0.018900
0.018690
0.018461
0.018213
0.017947
0.017663
0.017361
0.017042
0.016705
0.016351
0.015981
0.015594
0.015192
0.014774
0.014340
0.013893
0.013430
0.012954
0.012465
0.011963
0.011448
0.010921
0.010383
0.009833
0.009274
0.008704
0.008125
0.007537
0.006941
0.006337
0.005726
0.005108
0.004484
0.003855
0.003221
0.002583
0.001941
0.001297
0.000649
0.000000
0.000000
0.000674
0.001347
0.002018
0.002688
0.003355
0.004019
0.004679
0.005334
0.005983
0.006627
0.007264
0.007894
0.008517
0.009130
0.009735
0.010330
0.010915
0.011489
0.012051
0.012602
0.013140
0.013665
0.014176
0.014674
0.015156
0.015624
0.016076
0.016512
0.016932
0.017335
0.017721
0.018089
0.018439
0.018771
0.019084
0.019378
0.019652
0.019908
0.020143
0.020358
0.020553
0.020728
0.020882
0.021015
0.021127
0.021218
0.021288
0.021336
0.021364
0.021370
0.021354
0.021318
0.021259
0.021180
0.021079
0.020958
0.020815
0.020651
0.020467
0.020262
0.020037
0.019791
0.019526
0.019240
0.018936
0.018612
0.018270
0.017909
0.017529
0.017132
0.016718
0.016286
0.015838
0.015374
0.014894
0.014398
0.013888
0.013363
0.012825
0.012273
0.011708
0.011131
0.010542
0.009942
0.009331
0.008710
0.008080
0.007441
0.006794
0.006138
0.005476
0.004808
0.004133
0.003454
0.002769
0.002081
0.001390
0.000696
0.000000
0.000000
0.000718
0.001436
0.002152
0.002866
0.003577
0.004285
0.004988
0.005687
0.006380
0.007066
0.007746
0.008417
0.009081
0.009735
0.010380
0.011014
0.011638
0.012250
0.012849
0.013436
0.014010
0.014570
0.015115
0.015645
0.016160
0.016659
0.017141
0.017606
0.018053
0.018483
0.018894
0.019287
0.019660
0.020014
0.020347
0.020661
0.020954
0.021226
0.021477
0.021707
0.021915
0.022101
0.022265
0.022407
0.022526
0.022623
0.022698
0.022750
0.022779
0.022785
0.022769
0.022729
0.022667
0.022583
0.022475
0.022346
0.022193
0.022019
0.021822
0.021604
0.021364
0.021102
0.020819
0.020515
0.020190
0.019845
0.019480
0.019095
0.018690
0.018267
0.017825
0.017365
0.016887
0.016392
0.015880
0.015352
0.014808
0.014248
0.013674
0.013085
0.012483
0.011868
0.011240
0.010600
0.009949
0.009287
0.008615
0.007934
0.007243
0.006545
0.005839
0.005126
0.004407
0.003682
0.002953
0.002219
0.001482
0.000742
0.000000
0.000000
0.000762
0.001524
0.002284
0.003041
0.003796
0.004547
0.005293
0.006034
0.006770
0.007498
0.008219
0.008932
0.009636
0.010330
0.011014
0.011687
0.012349
0.012998
0.013635
0.014258
0.014866
0.015460
0.016039
0.016602
0.017148
0.017677
0.018188
0.018682
0.019157
0.019613
0.020049
0.020466
0.020862
0.021237
0.021591
0.021924
0.022235
0.022523
0.022790
0.023033
0.023254
0.023452
0.023626
0.023776
0.023903
0.024006
0.024085
0.024140
0.024171
0.024178
0.024160
0.024119
0.024053
0.023963
0.023849
0.023711
0.023550
0.023365
0.023156
0.022924
0.022669
0.022392
0.022091
0.021769
0.021424
0.021058
0.020670
0.020262
0.019833
0.019383
0.018915
0.018426
0.017919
0.017394
0.016851
0.016290
0.015713
0.015119
0.014510
0.013885
0.013246
0.012593
0.011927
0.011248
0.010557
0.009855
0.009142
0.008419
0.007686
0.006945
0.006196
0.005439
0.004676
0.003907
0.003133
0.002355
0.001573
0.000787
0.000000
0.000000
0.000805
0.001610
0.002413
0.003213
0.004011
0.004804
0.005593
0.006376
0.007153
0.007922
0.008684
0.009437
0.010181
0.010915
0.011638
0.012349
0.013048
0.013734
0.014407
0.015065
0.015708
0.016335
0.016947
0.017541
0.018118
0.018678
0.019218
0.019739
0.020241
0.020723
0.021184
0.021624
0.022043
0.022439
0.022813
0.023165
0.023493
0.023798
0.024080
0.024337
0.024570
0.024779
0.024963
0.025122
0.025256
0.025365
0.025448
0.025507
0.025539
0.025546
0.025528
0.025484
0.025414
0.025319
0.025199
0.025054
0.024883
0.024687
0.024467
0.024222
0.023953
0.023659
0.023342
0.023001
0.022637
0.022250
0.021840
0.021409
0.020955
0.020481
0.019985
0.019469
0.018934
0.018379
0.017805
0.017212
0.016602
0.015975
0.015331
0.014671
0.013996
0.013306
0.012602
0.011885
0.011155
0.010413
0.009659
0.008895
0.008121
0.007338
0.006547
0.005747
0.004941
0.004129
0.003311
0.002488
0.001662
0.000832
0.000000
0.000000
0.000848
0.001695
0.002540
0.003382
0.004222
0.005057
0.005887
0.006711
0.007529
0.008339
0.009141
0.009934
0.010716
0.011489
0.012250
0.012998
0.013734
0.014456
0.015164
0.015857
0.016534
0.017194
0.017838
0.018464
0.019071
0.019660
0.020229
0.020777
0.021306
0.021813
0.022298
0.022761
0.023202
0.023619
0.024013
0.024383
0.024729
0.025050
0.025346
0.025617
0.025862
0.026082
0.026276
0.026443
0.026584
0.026699
0.026787
0.026848
0.026882
0.026890
0.026870
0.026824
0.026751
0.026651
0.026524
0.026371
0.026191
0.025985
0.025753
0.025496
0.025212
0.024903
0.024569
0.024210
0.023827
0.023420
0.022989
0.022534
0.022057
0.021558
0.021036
0.020493
0.019929
0.019345
0.018741
0.018117
0.017475
0.016815
0.016137
0.015443
0.014732
0.014006
0.013265
0.012510
0.011741
0.010960
0.010167
0.009363
0.008548
0.007724
0.006891
0.006049
0.005201
0.004346
0.003485
0.002619
0.001749
0.000876
0.000000
0.000000
0.000889
0.001778
0.002664
0.003548
0.004428
0.005304
0.006175
0.007040
0.007897
0.008747
0.009588
0.010420
0.011241
0.012051
0.012849
0.013635
0.014407
0.015164
0.015907
0.016633
0.017343
0.018036
0.018711
0.019368
0.020005
0.020622
0.021219
0.021795
0.022349
0.022881
0.023390
0.023875
0.024338
0.024775
0.025189
0.025577
0.025939
0.026276
0.026587
0.026871
0.027129
0.027359
0.027562
0.027738
0.027886
0.028006
0.028098
0.028162
0.028198
0.028206
0.028186
0.028137
0.028060
0.027956
0.027823
0.027662
0.027474
0.027258
0.027014
0.026744
0.026446
0.026122
0.025772
0.025396
0.024994
0.024566
0.024114
0.023638
0.023137
0.022613
0.022066
0.021497
0.020905
0.020292
0.019658
0.019004
0.018331
0.017638
0.016927
0.016199
0.015453
0.014692
0.013914
0.013122
0.012316
0.011497
0.010665
0.009821
0.008967
0.008102
0.007228
0.006346
0.005455
0.004558
0.003655
0.002747
0.001835
0.000919
0.000000
0.000000
0.000930
0.001859
0.002786
0.003710
0.004631
0.005547
0.006457
0.007361
0.008258
0.009147
0.010026
0.010896
0.011755
0.012602
0.013436
0.014258
0.015065
0.015857
0.016633
0.017393
0.018136
0.018860
0.019566
0.020253
0.020919
0.021564
0.022188
0.022790
0.023370
0.023926
0.024458
0.024966
0.025449
0.025907
0.026339
0.026745
0.027124
0.027477
0.027802
0.028099
0.028368
0.028609
0.028821
0.029005
0.029160
0.029285
0.029382
0.029449
0.029486
0.029495
0.029473
0.029423
0.029342
0.029233
0.029094
0.028926
0.028729
0.028503
0.028249
0.027966
0.027655
0.027316
0.026949
0.026556
0.026135
0.025689
0.025216
0.024718
0.024194
0.023646
0.023074
0.022479
0.021860
0.021219
0.020556
0.019873
0.019168
0.018444
0.017701
0.016939
0.016159
0.015363
0.014550
0.013722
0.012879
0.012022
0.011152
0.010270
0.009377
0.008472
0.007558
0.006636
0.005705
0.004767
0.003822
0.002873
0.001918
0.000961
0.000000
0.000000
0.000970
0.001938
0.002905
0.003869
0.004828
0.005784
0.006733
0.007676
0.008611
0.009537
0.010454
0.011361
0.012257
0.013140
0.014010
0.014866
0.015708
0.016534
0.017343
0.018136
0.018910
0.019666
0.020401
0.021117
0.021812
0.022485
0.023136
0.023763
0.024367
0.024947
0.025502
0.026032
0.026536
0.027013
0.027464
0.027887
0.028282
0.028650
0.028989
0.029298
0.029579
0.029830
0.030052
0.030243
0.030405
0.030536
0.030636
0.030706
0.030745
0.030754
0.030732
0.030679
0.030595
0.030481
0.030336
0.030161
0.029955
0.029720
0.029455
0.029160
0.028835
0.028482
0.028100
0.027690
0.027251
0.026785
0.026293
0.025773
0.025227
0.024656
0.024059
0.023438
0.022793
0.022125
0.021434
0.020721
0.019987
0.019231
0.018456
0.017662
0.016849
0.016019
0.015171
0.014308
0.013429
0.012535
0.011628
0.010709
0.009777
0.008834
0.007881
0.006919
0.005948
0.004970
0.003986
0.002995
0.002000
0.001002
0.000000
0.000000
0.001008
0.002016
0.003021
0.004023
0.005021
0.006015
0.007002
0.007982
0.008955
0.009918
0.010872
0.011815
0.012746
0.013665