# vtk DataFile Version 2.0
solution by FDM
ASCII
DATASET UNSTRUCTURED_GRID
POINTS 100 double
0.000000 0.000000 0.000000
0.000000 0.100000 0.000000
0.000000 0.200000 0.000000
0.000000 0.300000 0.000000
0.000000 0.400000 0.000000
0.000000 0.500000 0.000000
0.000000 0.600000 0.000000
0.000000 0.700000 0.000000
0.000000 0.800000 0.000000
0.000000 0.900000 0.000000
0.100000 0.000000 0.000000
0.100000 0.100000 0.000000
0.100000 0.200000 0.000000
0.100000 0.300000 0.000000
0.100000 0.400000 0.000000
0.100000 0.500000 0.000000
0.100000 0.600000 0.000000
0.100000 0.700000 0.000000
0.100000 0.800000 0.000000
0.100000 0.900000 0.000000
0.200000 0.000000 0.000000
0.200000 0.100000 0.000000
0.200000 0.200000 0.000000
0.200000 0.300000 0.000000
0.200000 0.400000 0.000000
0.200000 0.500000 0.000000
0.200000 0.600000 0.000000
0.200000 0.700000 0.000000
0.200000 0.800000 0.000000
0.200000 0.900000 0.000000
0.300000 0.000000 0.000000
0.300000 0.100000 0.000000
0.300000 0.200000 0.000000
0.300000 0.300000 0.000000
0.300000 0.400000 0.000000
0.300000 0.500000 0.000000
0.300000 0.600000 0.000000
0.300000 0.700000 0.000000
0.300000 0.800000 0.000000
0.300000 0.900000 0.000000
0.400000 0.000000 0.000000
0.400000 0.100000 0.000000
0.400000 0.200000 0.000000
0.400000 0.300000 0.000000
0.400000 0.400000 0.000000
0.400000 0.500000 0.000000
0.400000 0.600000 0.000000
0.400000 0.700000 0.000000
0.400000 0.800000 0.000000
0.400000 0.900000 0.000000
0.500000 0.000000 0.000000
0.500000 0.100000 0.000000
0.500000 0.200000 0.000000
0.500000 0.300000 0.000000
0.500000 0.400000 0.000000
0.500000 0.500000 0.000000
0.500000 0.600000 0.000000
0.500000 0.700000 0.000000
0.500000 0.800000 0.000000
0.500000 0.900000 0.000000
0.600000 0.000000 0.000000
0.600000 0.100000 0.000000
0.600000 0.200000 0.000000
0.600000 0.300000 0.000000
0.600000 0.400000 0.000000
0.600000 0.500000 0.000000
0.600000 0.600000 0.000000
0.600000 0.700000 0.000000
0.600000 0.800000 0.000000
0.600000 0.900000 0.000000
0.700000 0.000000 0.000000
0.700000 0.100000 0.000000
0.700000 0.200000 0.000000
0.700000 0.300000 0.000000
0.700000 0.400000 0.000000
0.700000 0.500000 0.000000
0.700000 0.600000 0.000000
0.700000 0.700000 0.000000
0.700000 0.800000 0.000000
0.700000 0.900000 0.000000
0.800000 0.000000 0.000000
0.800000 0.100000 0.000000
0.800000 0.200000 0.000000
0.800000 0.300000 0.000000
0.800000 0.400000 0.000000
0.800000 0.500000 0.000000
0.800000 0.600000 0.000000
0.800000 0.700000 0.000000
0.800000 0.800000 0.000000
0.800000 0.900000 0.000000
0.900000 0.000000 0.000000
0.900000 0.100000 0.000000
0.900000 0.200000 0.000000
0.900000 0.300000 0.000000
0.900000 0.400000 0.000000
0.900000 0.500000 0.000000
0.900000 0.600000 0.000000
0.900000 0.700000 0.000000
0.900000 0.800000 0.000000
0.900000 0.900000 0.000000
POINT_DATA 100
SCALARS U double 1
LOOKUP_TABLE default
0.000000
0.000000
0.000000
0.000000
0.000000
0.000000
0.000000
0.000000
0.000000
0.000000
0.000000
0.004534
0.008590
0.011735
0.013614
0.013985
0.012735
0.009880
0.005558
0.000000
0.000000
0.008590
0.016276
0.022235
0.025796
0.026502
0.024134
0.018727
0.010538
0.000000
0.000000
0.011735
0.022235
0.030376
0.035245
0.036213
0.032984
0.025600
0.014410
0.000000
0.000000
0.013614
0.025796
0.035245
0.040900
0.042032
0.038296
0.029735
0.016747
0.000000
0.000000
0.013985
0.026502
0.036213
0.042032
0.043209
0.039386
0.030602
0.017252
0.000000
0.000000
0.012735
0.024134
0.032984
0.038296
0.039386
0.035927
0.027945
0.015781
0.000000
0.000000
0.009880
0.018727
0.025600
0.029735
0.030602
0.027945
0.021777
0.012336
0.000000
0.000000
0.005558
0.010538
0.014410
0.016747
0.017252
0.015781
0.012336
0.007032
0.000000
0.000000
0.000000
0.000000
0.000000
0.000000
0.000000
0.000000
0.000000
0.000000
0.000000

SCALARS U_true double 1
LOOKUP_TABLE default
0.000000
0.000000
0.000000
0.000000
0.000000
0.000000
0.000000
0.000000
0.000000
0.000000
0.000000
0.004838
0.009202
0.012665
0.014889
0.015655
0.014889
0.012665
0.009202
0.004838
0.000000
0.009202
0.017503
0.024091
0.028320
0.029778
0.028320
0.024091
0.017503
0.009202
0.000000
0.012665
0.024091
0.033158
0.038979
0.040985
0.038979
0.033158
0.024091
0.012665
0.000000
0.014889
0.028320
0.038979
0.045823
0.048181
0.045823
0.038979
0.028320
0.014889
0.000000
0.015655
0.029778
0.040985
0.048181
0.050661
0.048181
0.040985
0.029778
0.015655
0.000000
0.014889
0.028320
0.038979
0.045823
0.048181
0.045823
0.038979
0.028320
0.014889
0.000000
0.012665
0.024091
0.033158
0.038979
0.040985
0.038979
0.033158
0.024091
0.012665
0.000000
0.009202
0.017503
0.024091
0.028320
0.029778
0.028320
0.024091
0.017503
0.009202
0.000000
0.004838
0.009202
0.012665
0.014889
0.015655
0.014889
0.012665
0.009202
0.004838

